LAMMPS data file via write_data, version 2 Aug 2023, timestep = 26, units = metal

60 atoms
2 atom types

-20 20 xlo xhi
-20 20 ylo yhi
-20 20 zlo zhi

Masses

1 28.01
2 12.011

Atoms # atomic

31 2 -0.4416598475492229 -2.6683640628972904 -2.73204349856826 0 0 0
35 2 0.007493534415062997 -1.441555543785258 -3.563867750471326 0 0 0
47 2 -0.9414487750584395 -0.21842005030741246 -3.7209217622525212 0 0 0
53 2 -2.335127269901609 -0.22778660577639778 -3.045420459722633 0 0 0
25 2 1.5198999988934327 -1.2211665275108814 -3.313298685091239 0 0 0
48 2 -0.37356742284155803 1.219410930185624 -3.6266756465499608 0 0 0
56 2 -1.4162759398911058 2.0986727906749456 -2.8929270395281232 0 0 0
27 2 2.09043712440668 0.2233886600090467 -3.2186118154261263 0 0 0
37 2 1.145912011438425 1.440830624275403 -3.374934762004965 0 0 0
32 2 -2.0007201503514995 -3.224961324874807 -0.6132170975436045 0 0 0
15 2 0.633547526118754 -3.755930305075486 -0.5204776208031915 0 0 0
20 2 0.7931545610883265 -3.2061844105472286 -1.96737877531561 0 0 0
49 2 -2.786381176909516 -1.4603324582960748 -2.2097060719046913 0 0 0
50 2 -3.52899388575067 -1.2550988471917663 -0.8661529398973605 0 0 0
40 2 -1.8418560650918274 -2.6777744235352166 -2.0533831250303063 0 0 0
16 2 2.0054652174111745 -2.3117671450629236 -2.3266142368110563 0 0 0
7 2 3.0638383702748286 -1.9629129128763965 -1.2406285559654346 0 0 0
9 2 3.631719723199447 -0.5250819326580277 -1.146382439824659 0 0 0
57 2 -3.823825613972582 0.18364041878565268 -0.35203089056923487 0 0 0
58 2 -2.9049742845057502 2.5100998151382936 -0.1995374708389287 0 0 0
60 2 -3.3746722325524985 1.410448938685192 -1.1838551415739207 0 0 0
59 2 -2.6285865960054453 1.2042555249446047 -2.533691577670696 0 0 0
33 2 1.6156099592710427 2.540481501303684 -2.3906170918527847 0 0 0
17 2 3.1438836938938466 0.5706190230506116 -2.1376812490886303 0 0 0
19 2 3.0434286678879263 2.3456994644872404 -0.1205315090789862 0 0 0
23 2 2.8504243678625802 2.002661154308836 -1.6259523681418686 0 0 0
51 2 -0.9443813875729377 3.203466330876551 -1.9040060768882 0 0 0
55 2 -1.6869940963730576 3.40869994167952 -0.5604529447327468 0 0 0
39 2 0.7601309685953085 3.7652968610755697 -0.15502368255656995 0 0 0
43 2 0.5680250772605168 3.423855346762258 -1.653437012644555 0 0 0
18 2 -0.5680250770531523 -3.423855345971866 1.6534370122885034 0 0 0
22 2 -0.7601309684592509 -3.7652968604539176 0.15502368220890006 0 0 0
6 2 1.6869940963325032 -3.4086999414825563 0.5604529447141406 0 0 0
10 2 0.944381387828896 -3.2034663311709366 1.9040060771302372 0 0 0
38 2 -2.850424367685108 -2.0026611540954398 1.625952368277788 0 0 0
42 2 -3.0434286674958506 -2.3456994642377236 0.12053150908349809 0 0 0
44 2 -3.143883694490017 -0.5706190231592236 2.1376812495952064 0 0 0
28 2 -1.6156099593947921 -2.540481501466655 2.3906170922557615 0 0 0
2 2 2.6285865965965534 -1.2042555253524694 2.5336915782969807 0 0 0
1 2 3.374672231980917 -1.4104489385388812 1.1838551413440357 0 0 0
3 2 2.904974284919704 -2.510099815569904 0.19953747093181357 0 0 0
4 2 3.823825614463515 -0.18364041889837182 0.35203089047748304 0 0 0
52 2 -3.631719722522474 0.5250819325801146 1.1463824396898907 0 0 0
54 2 -3.063838370396687 1.9629129130646137 1.2406285562282962 0 0 0
45 2 -2.005465217297019 2.3117671450919572 2.326614236825506 0 0 0
21 2 1.841856064244474 2.677774422391853 2.0533831242377976 0 0 0
11 2 3.528993885618097 1.255098847003767 0.8661529397596328 0 0 0
12 2 2.7863811767552322 1.460332457938974 2.2097060718158423 0 0 0
41 2 -0.7931545610385772 3.206184410704362 1.9673787753947505 0 0 0
46 2 -0.6335475260091 3.7559303048684383 0.5204776206616516 0 0 0
29 2 2.0007201501064857 3.2249613246627615 0.6132170972726404 0 0 0
24 2 -1.145912011512577 -1.4408306243524436 3.3749347621929133 0 0 0
34 2 -2.090437124181078 -0.22338865990411297 3.218611814947259 0 0 0
5 2 1.4162759399179157 -2.098672790616488 2.8929270393868785 0 0 0
13 2 0.3735674227827127 -1.2194109301736649 3.626675646489199 0 0 0
36 2 -1.5198999993002444 1.2211665278246946 3.313298685693123 0 0 0
8 2 2.335127269820201 0.22778660557815647 3.045420459657537 0 0 0
14 2 0.9414487749005924 0.2184200503310259 3.720921761970918 0 0 0
26 2 -0.007493534604361449 1.441555543887617 3.563867750129984 0 0 0
30 2 0.4416598474839728 2.668364063667257 2.73204349939011 0 0 0

Velocities

31 0 0 0
35 0 0 0
47 0 0 0
53 0 0 0
25 0 0 0
48 0 0 0
56 0 0 0
27 0 0 0
37 0 0 0
32 0 0 0
15 0 0 0
20 0 0 0
49 0 0 0
50 0 0 0
40 0 0 0
16 0 0 0
7 0 0 0
9 0 0 0
57 0 0 0
58 0 0 0
60 0 0 0
59 0 0 0
33 0 0 0
17 0 0 0
19 0 0 0
23 0 0 0
51 0 0 0
55 0 0 0
39 0 0 0
43 0 0 0
18 0 0 0
22 0 0 0
6 0 0 0
10 0 0 0
38 0 0 0
42 0 0 0
44 0 0 0
28 0 0 0
2 0 0 0
1 0 0 0
3 0 0 0
4 0 0 0
52 0 0 0
54 0 0 0
45 0 0 0
21 0 0 0
11 0 0 0
12 0 0 0
41 0 0 0
46 0 0 0
29 0 0 0
24 0 0 0
34 0 0 0
5 0 0 0
13 0 0 0
36 0 0 0
8 0 0 0
14 0 0 0
26 0 0 0
30 0 0 0
